SPECGRID
 40 40 15 1 F
 /
COORD
 0.0 0.0 2000.0 0.0 0.0 2160.0
 100.0 0.0 2000.0 100.0 0.0 2160.0
 200.0 0.0 2000.0 200.0 0.0 2160.0
 300.0 0.0 2000.0 300.0 0.0 2160.0
 400.0 0.0 2000.0 400.0 0.0 2160.0
 500.0 0.0 2000.0 500.0 0.0 2160.0
 600.0 0.0 2000.0 600.0 0.0 2160.0
 700.0 0.0 2000.0 700.0 0.0 2160.0
 800.0 0.0 2000.0 800.0 0.0 2160.0
 900.0 0.0 2000.0 900.0 0.0 2160.0
 1000.0 0.0 2000.0 1000.0 0.0 2160.0
 1100.0 0.0 2000.0 1100.0 0.0 2160.0
 1200.0 0.0 2000.0 1200.0 0.0 2160.0
 1300.0 0.0 2000.0 1300.0 0.0 2160.0
 1400.0 0.0 2000.0 1400.0 0.0 2160.0
 1500.0 0.0 2000.0 1500.0 0.0 2160.0
 1600.0 0.0 2000.0 1600.0 0.0 2160.0
 1700.0 0.0 2000.0 1700.0 0.0 2160.0
 1800.0 0.0 2000.0 1800.0 0.0 2160.0
 1900.0 0.0 2000.0 1900.0 0.0 2160.0
 2000.0 0.0 2000.0 2000.0 0.0 2160.0
 2100.0 0.0 2000.0 2100.0 0.0 2160.0
 2200.0 0.0 2000.0 2200.0 0.0 2160.0
 2300.0 0.0 2000.0 2300.0 0.0 2160.0
 2400.0 0.0 2000.0 2400.0 0.0 2160.0
 2500.0 0.0 2000.0 2500.0 0.0 2160.0
 2600.0 0.0 2000.0 2600.0 0.0 2160.0
 2700.0 0.0 2000.0 2700.0 0.0 2160.0
 2800.0 0.0 2000.0 2800.0 0.0 2160.0
 2900.0 0.0 2000.0 2900.0 0.0 2160.0
 3000.0 0.0 2000.0 3000.0 0.0 2160.0
 3100.0 0.0 2000.0 3100.0 0.0 2160.0
 3200.0 0.0 2000.0 3200.0 0.0 2160.0
 3300.0 0.0 2000.0 3300.0 0.0 2160.0
 3400.0 0.0 2000.0 3400.0 0.0 2160.0
 3500.0 0.0 2000.0 3500.0 0.0 2160.0
 3600.0 0.0 2000.0 3600.0 0.0 2160.0
 3700.0 0.0 2000.0 3700.0 0.0 2160.0
 3800.0 0.0 2000.0 3800.0 0.0 2160.0
 3900.0 0.0 2000.0 3900.0 0.0 2160.0
 4000.0 0.0 2000.0 4000.0 0.0 2160.0
 6.123233995736766e-15 100.0 2000.0 6.123233995736766e-15 100.0 2160.0
 100.0 100.00000000000001 2000.0 100.0 100.00000000000001 2160.0
 200.0 100.00000000000001 2000.0 200.0 100.00000000000001 2160.0
 300.0 100.00000000000004 2000.0 300.0 100.00000000000004 2160.0
 400.0 100.00000000000003 2000.0 400.0 100.00000000000003 2160.0
 500.0 100.00000000000011 2000.0 500.0 100.00000000000011 2160.0
 600.0 99.99999999999996 2000.0 600.0 99.99999999999996 2160.0
 700.0 100.00000000000031 2000.0 700.0 100.00000000000031 2160.0
 800.0 99.99999999999942 2000.0 800.0 99.99999999999942 2160.0
 900.0 99.99999999999999 2000.0 900.0 99.99999999999999 2160.0
 1000.0 99.99999999999983 2000.0 1000.0 99.99999999999983 2160.0
 1100.0 99.99999999999987 2000.0 1100.0 99.99999999999987 2160.0
 1200.0 100.0000000000009 2000.0 1200.0 100.0000000000009 2160.0
 1300.0 99.99999999999946 2000.0 1300.0 99.99999999999946 2160.0
 1400.0 99.99999999999808 2000.0 1400.0 99.99999999999808 2160.0
 1500.0 100.00000000000063 2000.0 1500.0 100.00000000000063 2160.0
 1600.0 99.9999999999977 2000.0 1600.0 99.9999999999977 2160.0
 1700.0 99.99999999999768 2000.0 1700.0 99.99999999999768 2160.0
 1800.0 100.00000000000142 2000.0 1800.0 100.00000000000142 2160.0
 1900.0 99.99999999999821 2000.0 1900.0 99.99999999999821 2160.0
 2000.0 100.0000000000011 2000.0 2000.0 100.0000000000011 2160.0
 2100.0 100.00000000000293 2000.0 2100.0 100.00000000000293 2160.0
 2200.0 99.9999999999945 2000.0 2200.0 99.9999999999945 2160.0
 2300.0 99.99999999999889 2000.0 2300.0 99.99999999999889 2160.0
 2400.0 100.00000000000269 2000.0 2400.0 100.00000000000269 2160.0
 2500.0 100.0000000000028 2000.0 2500.0 100.0000000000028 2160.0
 2600.0 99.99999999999983 2000.0 2600.0 99.99999999999983 2160.0
 2700.0 99.99999999999967 2000.0 2700.0 99.99999999999967 2160.0
 2800.0 99.99999999999834 2000.0 2800.0 99.99999999999834 2160.0
 2900.0 100.00000000000848 2000.0 2900.0 100.00000000000848 2160.0
 3000.0 100.0000000000007 2000.0 3000.0 100.0000000000007 2160.0
 3100.0 100.00000000000635 2000.0 3100.0 100.00000000000635 2160.0
 3200.0 100.00000000000037 2000.0 3200.0 100.00000000000037 2160.0
 3300.0 99.99999999999753 2000.0 3300.0 99.99999999999753 2160.0
 3400.0 99.99999999999932 2000.0 3400.0 99.99999999999932 2160.0
 3500.0 99.99999999999841 2000.0 3500.0 99.99999999999841 2160.0
 3600.0 99.99999999999963 2000.0 3600.0 99.99999999999963 2160.0
 3700.0 100.00000000000091 2000.0 3700.0 100.00000000000091 2160.0
 3800.0 100.00000000001035 2000.0 3800.0 100.00000000001035 2160.0
 3900.0 99.99999999999152 2000.0 3900.0 99.99999999999152 2160.0
 4000.0 100.0000000000107 2000.0 4000.0 100.0000000000107 2160.0
 1.2246467991473532e-14 200.0 2000.0 1.2246467991473532e-14 200.0 2160.0
 100.00000000000001 200.0 2000.0 100.00000000000001 200.0 2160.0
 200.0 200.00000000000003 2000.0 200.0 200.00000000000003 2160.0
 300.0 199.99999999999997 2000.0 300.0 199.99999999999997 2160.0
 400.0 200.00000000000003 2000.0 400.0 200.00000000000003 2160.0
 500.0 200.0 2000.0 500.0 200.0 2160.0
 600.0 200.00000000000009 2000.0 600.0 200.00000000000009 2160.0
 700.0 200.0 2000.0 700.0 200.0 2160.0
 800.0 200.00000000000006 2000.0 800.0 200.00000000000006 2160.0
 900.0 200.00000000000017 2000.0 900.0 200.00000000000017 2160.0
 1000.0 200.00000000000023 2000.0 1000.0 200.00000000000023 2160.0
 1100.0 200.00000000000023 2000.0 1100.0 200.00000000000023 2160.0
 1200.0 199.99999999999991 2000.0 1200.0 199.99999999999991 2160.0
 1300.0 199.99999999999912 2000.0 1300.0 199.99999999999912 2160.0
 1400.0 200.00000000000063 2000.0 1400.0 200.00000000000063 2160.0
 1500.0 200.00000000000006 2000.0 1500.0 200.00000000000006 2160.0
 1600.0 199.99999999999883 2000.0 1600.0 199.99999999999883 2160.0
 1700.0 199.9999999999989 2000.0 1700.0 199.9999999999989 2160.0
 1800.0 199.99999999999997 2000.0 1800.0 199.99999999999997 2160.0
 1900.0 199.9999999999983 2000.0 1900.0 199.9999999999983 2160.0
 2000.0 199.99999999999966 2000.0 2000.0 199.99999999999966 2160.0
 2100.0 199.9999999999991 2000.0 2100.0 199.9999999999991 2160.0
 2200.0 199.99999999999974 2000.0 2200.0 199.99999999999974 2160.0
 2300.0 199.99999999999943 2000.0 2300.0 199.99999999999943 2160.0
 2400.0 200.0000000000018 2000.0 2400.0 200.0000000000018 2160.0
 2500.0 200.00000000000156 2000.0 2500.0 200.00000000000156 2160.0
 2600.0 199.99999999999892 2000.0 2600.0 199.99999999999892 2160.0
 2700.0 200.0000000000004 2000.0 2700.0 200.0000000000004 2160.0
 2800.0 199.99999999999616 2000.0 2800.0 199.99999999999616 2160.0
 2900.0 200.000000000002 2000.0 2900.0 200.000000000002 2160.0
 3000.0 200.00000000000125 2000.0 3000.0 200.00000000000125 2160.0
 3100.0 199.999999999999 2000.0 3100.0 199.999999999999 2160.0
 3200.0 199.9999999999954 2000.0 3200.0 199.9999999999954 2160.0
 3300.0 199.99999999999702 2000.0 3300.0 199.99999999999702 2160.0
 3400.0 199.99999999999537 2000.0 3400.0 199.99999999999537 2160.0
 3500.0 200.0000000000004 2000.0 3500.0 200.0000000000004 2160.0
 3600.0 200.00000000000284 2000.0 3600.0 200.00000000000284 2160.0
 3700.0 200.0000000000001 2000.0 3700.0 200.0000000000001 2160.0
 3800.0 199.99999999999642 2000.0 3800.0 199.99999999999642 2160.0
 3900.0 200.0000000000034 2000.0 3900.0 200.0000000000034 2160.0
 4000.0 200.0000000000022 2000.0 4000.0 200.0000000000022 2160.0
 1.8369701987210297e-14 300.0 2000.0 1.8369701987210297e-14 300.0 2160.0
 100.00000000000001 300.0 2000.0 100.00000000000001 300.0 2160.0
 200.0 300.0 2000.0 200.0 300.0 2160.0
 300.0 300.00000000000006 2000.0 300.0 300.00000000000006 2160.0
 400.0 299.99999999999994 2000.0 400.0 299.99999999999994 2160.0
 500.0 300.0 2000.0 500.0 300.0 2160.0
 600.0 300.00000000000006 2000.0 600.0 300.00000000000006 2160.0
 700.0 299.99999999999994 2000.0 700.0 299.99999999999994 2160.0
 800.0 299.9999999999999 2000.0 800.0 299.9999999999999 2160.0
 900.0 300.0000000000001 2000.0 900.0 300.0000000000001 2160.0
 1000.0 300.0000000000003 2000.0 1000.0 300.0000000000003 2160.0
 1100.0 300.0000000000003 2000.0 1100.0 300.0000000000003 2160.0
 1200.0 300.0000000000001 2000.0 1200.0 300.0000000000001 2160.0
 1300.0 300.0000000000002 2000.0 1300.0 300.0000000000002 2160.0
 1400.0 300.0000000000004 2000.0 1400.0 300.0000000000004 2160.0
 1500.0 300.0000000000004 2000.0 1500.0 300.0000000000004 2160.0
 1600.0 300.0000000000001 2000.0 1600.0 300.0000000000001 2160.0
 1700.0 299.99999999999926 2000.0 1700.0 299.99999999999926 2160.0
 1800.0 299.99999999999983 2000.0 1800.0 299.99999999999983 2160.0
 1900.0 300.00000000000017 2000.0 1900.0 300.00000000000017 2160.0
 2000.0 300.0000000000002 2000.0 2000.0 300.0000000000002 2160.0
 2100.0 299.9999999999993 2000.0 2100.0 299.9999999999993 2160.0
 2200.0 299.99999999999903 2000.0 2200.0 299.99999999999903 2160.0
 2300.0 299.99999999999926 2000.0 2300.0 299.99999999999926 2160.0
 2400.0 300.0000000000004 2000.0 2400.0 300.0000000000004 2160.0
 2500.0 299.9999999999989 2000.0 2500.0 299.9999999999989 2160.0
 2600.0 300.00000000000074 2000.0 2600.0 300.00000000000074 2160.0
 2700.0 299.99999999999994 2000.0 2700.0 299.99999999999994 2160.0
 2800.0 299.9999999999989 2000.0 2800.0 299.9999999999989 2160.0
 2900.0 299.99999999999983 2000.0 2900.0 299.99999999999983 2160.0
 3000.0 299.9999999999995 2000.0 3000.0 299.9999999999995 2160.0
 3100.0 300.0000000000011 2000.0 3100.0 300.0000000000011 2160.0
 3200.0 299.9999999999973 2000.0 3200.0 299.9999999999973 2160.0
 3300.0 299.9999999999996 2000.0 3300.0 299.9999999999996 2160.0
 3400.0 299.9999999999983 2000.0 3400.0 299.9999999999983 2160.0
 3500.0 300.0000000000005 2000.0 3500.0 300.0000000000005 2160.0
 3600.0 299.9999999999978 2000.0 3600.0 299.9999999999978 2160.0
 3700.0 299.99999999999835 2000.0 3700.0 299.99999999999835 2160.0
 3800.0 300.0000000000014 2000.0 3800.0 300.0000000000014 2160.0
 3900.0 299.9999999999984 2000.0 3900.0 299.9999999999984 2160.0
 4000.0 300.00000000000546 2000.0 4000.0 300.00000000000546 2160.0
 2.4492935982947064e-14 400.0 2000.0 2.4492935982947064e-14 400.0 2160.0
 99.99999999999997 400.0 2000.0 99.99999999999997 400.0 2160.0
 200.00000000000003 400.0 2000.0 200.00000000000003 400.0 2160.0
 300.0 400.0 2000.0 300.0 400.0 2160.0
 400.0 400.00000000000006 2000.0 400.0 400.00000000000006 2160.0
 500.0 399.99999999999994 2000.0 500.0 399.99999999999994 2160.0
 600.0 399.99999999999994 2000.0 600.0 399.99999999999994 2160.0
 700.0 399.9999999999998 2000.0 700.0 399.9999999999998 2160.0
 800.0 400.00000000000006 2000.0 800.0 400.00000000000006 2160.0
 900.0 399.99999999999994 2000.0 900.0 399.99999999999994 2160.0
 1000.0 400.0 2000.0 1000.0 400.0 2160.0
 1100.0 400.0000000000003 2000.0 1100.0 400.0000000000003 2160.0
 1200.0 400.00000000000017 2000.0 1200.0 400.00000000000017 2160.0
 1300.0 399.9999999999999 2000.0 1300.0 399.9999999999999 2160.0
 1400.0 400.0 2000.0 1400.0 400.0 2160.0
 1500.0 400.00000000000006 2000.0 1500.0 400.00000000000006 2160.0
 1600.0 400.0000000000001 2000.0 1600.0 400.0000000000001 2160.0
 1700.0 399.9999999999994 2000.0 1700.0 399.9999999999994 2160.0
 1800.0 400.00000000000034 2000.0 1800.0 400.00000000000034 2160.0
 1900.0 399.9999999999997 2000.0 1900.0 399.9999999999997 2160.0
 2000.0 400.00000000000045 2000.0 2000.0 400.00000000000045 2160.0
 2100.0 399.9999999999999 2000.0 2100.0 399.9999999999999 2160.0
 2200.0 400.00000000000045 2000.0 2200.0 400.00000000000045 2160.0
 2300.0 399.9999999999999 2000.0 2300.0 399.9999999999999 2160.0
 2400.0 399.99999999999983 2000.0 2400.0 399.99999999999983 2160.0
 2500.0 399.99999999999955 2000.0 2500.0 399.99999999999955 2160.0
 2600.0 399.99999999999824 2000.0 2600.0 399.99999999999824 2160.0
 2700.0 399.9999999999982 2000.0 2700.0 399.9999999999982 2160.0
 2800.0 400.00000000000125 2000.0 2800.0 400.00000000000125 2160.0
 2900.0 399.99999999999864 2000.0 2900.0 399.99999999999864 2160.0
 3000.0 400.0000000000001 2000.0 3000.0 400.0000000000001 2160.0
 3100.0 400.00000000000074 2000.0 3100.0 400.00000000000074 2160.0
 3200.0 399.99999999999767 2000.0 3200.0 399.99999999999767 2160.0
 3300.0 400.00000000000193 2000.0 3300.0 400.00000000000193 2160.0
 3400.0 399.9999999999978 2000.0 3400.0 399.9999999999978 2160.0
 3500.0 399.9999999999992 2000.0 3500.0 399.9999999999992 2160.0
 3600.0 399.99999999999994 2000.0 3600.0 399.99999999999994 2160.0
 3700.0 399.99999999999847 2000.0 3700.0 399.99999999999847 2160.0
 3800.0 399.9999999999966 2000.0 3800.0 399.9999999999966 2160.0
 3900.0 400.0000000000008 2000.0 3900.0 400.0000000000008 2160.0
 4000.0 399.9999999999993 2000.0 4000.0 399.9999999999993 2160.0
 3.061616997868383e-14 500.0 2000.0 3.061616997868383e-14 500.0 2160.0
 99.99999999999997 500.0 2000.0 99.99999999999997 500.0 2160.0
 200.00000000000003 500.0 2000.0 200.00000000000003 500.0 2160.0
 299.99999999999994 500.0 2000.0 299.99999999999994 500.0 2160.0
 400.0 499.99999999999994 2000.0 400.0 499.99999999999994 2160.0
 500.0 500.00000000000006 2000.0 500.0 500.00000000000006 2160.0
 600.0 500.0 2000.0 600.0 500.0 2160.0
 700.0 499.99999999999994 2000.0 700.0 499.99999999999994 2160.0
 800.0 499.99999999999994 2000.0 800.0 499.99999999999994 2160.0
 900.0 499.9999999999999 2000.0 900.0 499.9999999999999 2160.0
 1000.0 500.00000000000006 2000.0 1000.0 500.00000000000006 2160.0
 1100.0 499.99999999999983 2000.0 1100.0 499.99999999999983 2160.0
 1200.0 499.99999999999983 2000.0 1200.0 499.99999999999983 2160.0
 1300.0 500.00000000000017 2000.0 1300.0 500.00000000000017 2160.0
 1400.0 499.9999999999996 2000.0 1400.0 499.9999999999996 2160.0
 1500.0 500.0000000000002 2000.0 1500.0 500.0000000000002 2160.0
 1600.0 499.9999999999996 2000.0 1600.0 499.9999999999996 2160.0
 1700.0 499.9999999999994 2000.0 1700.0 499.9999999999994 2160.0
 1800.0 499.9999999999998 2000.0 1800.0 499.9999999999998 2160.0
 1900.0 499.9999999999995 2000.0 1900.0 499.9999999999995 2160.0
 2000.0 500.00000000000017 2000.0 2000.0 500.00000000000017 2160.0
 2100.0 499.99999999999994 2000.0 2100.0 499.99999999999994 2160.0
 2200.0 499.9999999999995 2000.0 2200.0 499.9999999999995 2160.0
 2300.0 499.9999999999999 2000.0 2300.0 499.9999999999999 2160.0
 2400.0 499.9999999999993 2000.0 2400.0 499.9999999999993 2160.0
 2500.0 500.0000000000006 2000.0 2500.0 500.0000000000006 2160.0
 2600.0 500.0000000000002 2000.0 2600.0 500.0000000000002 2160.0
 2700.0 500.0 2000.0 2700.0 500.0 2160.0
 2800.0 499.99999999999955 2000.0 2800.0 499.99999999999955 2160.0
 2900.0 500.0 2000.0 2900.0 500.0 2160.0
 3000.0 499.9999999999998 2000.0 3000.0 499.9999999999998 2160.0
 3100.0 499.9999999999998 2000.0 3100.0 499.9999999999998 2160.0
 3200.0 500.00000000000165 2000.0 3200.0 500.00000000000165 2160.0
 3300.0 499.99999999999966 2000.0 3300.0 499.99999999999966 2160.0
 3400.0 499.9999999999973 2000.0 3400.0 499.9999999999973 2160.0
 3500.0 499.9999999999989 2000.0 3500.0 499.9999999999989 2160.0
 3600.0 500.0000000000005 2000.0 3600.0 500.0000000000005 2160.0
 3700.0 500.0000000000023 2000.0 3700.0 500.0000000000023 2160.0
 3800.0 499.9999999999984 2000.0 3800.0 499.9999999999984 2160.0
 3900.0 499.99999999999955 2000.0 3900.0 499.99999999999955 2160.0
 4000.0 500.0000000000007 2000.0 4000.0 500.0000000000007 2160.0
 3.6739403974420595e-14 600.0 2000.0 3.6739403974420595e-14 600.0 2160.0
 99.99999999999996 600.0 2000.0 99.99999999999996 600.0 2160.0
 200.00000000000003 600.0 2000.0 200.00000000000003 600.0 2160.0
 300.0000000000001 600.0 2000.0 300.0000000000001 600.0 2160.0
 400.0 600.0 2000.0 400.0 600.0 2160.0
 500.0 600.0000000000001 2000.0 500.0 600.0000000000001 2160.0
 600.0 600.0000000000001 2000.0 600.0 600.0000000000001 2160.0
 700.0 600.0 2000.0 700.0 600.0 2160.0
 800.0 599.9999999999999 2000.0 800.0 599.9999999999999 2160.0
 900.0 600.0000000000002 2000.0 900.0 600.0000000000002 2160.0
 1000.0 600.0 2000.0 1000.0 600.0 2160.0
 1100.0 600.0 2000.0 1100.0 600.0 2160.0
 1200.0 600.0000000000001 2000.0 1200.0 600.0000000000001 2160.0
 1300.0 600.0 2000.0 1300.0 600.0 2160.0
 1400.0 599.9999999999999 2000.0 1400.0 599.9999999999999 2160.0
 1500.0 600.0 2000.0 1500.0 600.0 2160.0
 1600.0 599.9999999999998 2000.0 1600.0 599.9999999999998 2160.0
 1700.0 600.0000000000006 2000.0 1700.0 600.0000000000006 2160.0
 1800.0 600.0000000000002 2000.0 1800.0 600.0000000000002 2160.0
 1900.0 599.9999999999995 2000.0 1900.0 599.9999999999995 2160.0
 2000.0 600.0000000000006 2000.0 2000.0 600.0000000000006 2160.0
 2100.0 600.0000000000009 2000.0 2100.0 600.0000000000009 2160.0
 2200.0 600.0000000000006 2000.0 2200.0 600.0000000000006 2160.0
 2300.0 600.0000000000007 2000.0 2300.0 600.0000000000007 2160.0
 2400.0 600.0000000000002 2000.0 2400.0 600.0000000000002 2160.0
 2500.0 599.9999999999999 2000.0 2500.0 599.9999999999999 2160.0
 2600.0 600.0000000000005 2000.0 2600.0 600.0000000000005 2160.0
 2700.0 600.0000000000006 2000.0 2700.0 600.0000000000006 2160.0
 2800.0 600.0000000000008 2000.0 2800.0 600.0000000000008 2160.0
 2900.0 600.0000000000005 2000.0 2900.0 600.0000000000005 2160.0
 3000.0 600.0000000000008 2000.0 3000.0 600.0000000000008 2160.0
 3100.0 599.9999999999998 2000.0 3100.0 599.9999999999998 2160.0
 3200.0 600.0000000000002 2000.0 3200.0 600.0000000000002 2160.0
 3300.0 600.0000000000007 2000.0 3300.0 600.0000000000007 2160.0
 3400.0 599.9999999999985 2000.0 3400.0 599.9999999999985 2160.0
 3500.0 600.0000000000013 2000.0 3500.0 600.0000000000013 2160.0
 3600.0 599.9999999999997 2000.0 3600.0 599.9999999999997 2160.0
 3700.0 600.0000000000014 2000.0 3700.0 600.0000000000014 2160.0
 3800.0 600.0000000000003 2000.0 3800.0 600.0000000000003 2160.0
 3900.0 600.0000000000002 2000.0 3900.0 600.0000000000002 2160.0
 4000.0 600.0000000000005 2000.0 4000.0 600.0000000000005 2160.0
 4.2862637970157365e-14 700.0 2000.0 4.2862637970157365e-14 700.0 2160.0
 99.99999999999996 700.0000000000001 2000.0 99.99999999999996 700.0000000000001 2160.0
 199.99999999999991 700.0 2000.0 199.99999999999991 700.0 2160.0
 300.0 700.0 2000.0 300.0 700.0 2160.0
 400.00000000000006 699.9999999999999 2000.0 400.00000000000006 699.9999999999999 2160.0
 499.99999999999994 700.0 2000.0 499.99999999999994 700.0 2160.0
 600.0 700.0000000000001 2000.0 600.0 700.0000000000001 2160.0
 700.0 700.0000000000001 2000.0 700.0 700.0000000000001 2160.0
 800.0 700.0000000000001 2000.0 800.0 700.0000000000001 2160.0
 900.0000000000001 699.9999999999999 2000.0 900.0000000000001 699.9999999999999 2160.0
 1000.0 700.0 2000.0 1000.0 700.0 2160.0
 1100.0 700.0 2000.0 1100.0 700.0 2160.0
 1200.0 700.0 2000.0 1200.0 700.0 2160.0
 1300.0 699.9999999999999 2000.0 1300.0 699.9999999999999 2160.0
 1400.0 699.9999999999997 2000.0 1400.0 699.9999999999997 2160.0
 1500.0 699.9999999999999 2000.0 1500.0 699.9999999999999 2160.0
 1600.0 699.9999999999998 2000.0 1600.0 699.9999999999998 2160.0
 1700.0 700.0000000000003 2000.0 1700.0 700.0000000000003 2160.0
 1800.0 699.9999999999999 2000.0 1800.0 699.9999999999999 2160.0
 1900.0 699.9999999999999 2000.0 1900.0 699.9999999999999 2160.0
 2000.0 700.0000000000005 2000.0 2000.0 700.0000000000005 2160.0
 2100.0 699.9999999999994 2000.0 2100.0 699.9999999999994 2160.0
 2200.0 699.9999999999994 2000.0 2200.0 699.9999999999994 2160.0
 2300.0 699.9999999999994 2000.0 2300.0 699.9999999999994 2160.0
 2400.0 700.0000000000003 2000.0 2400.0 700.0000000000003 2160.0
 2500.0 699.9999999999994 2000.0 2500.0 699.9999999999994 2160.0
 2600.0 700.0000000000009 2000.0 2600.0 700.0000000000009 2160.0
 2700.0 700.0000000000005 2000.0 2700.0 700.0000000000005 2160.0
 2800.0 700.0000000000016 2000.0 2800.0 700.0000000000016 2160.0
 2900.0 699.9999999999994 2000.0 2900.0 699.9999999999994 2160.0
 3000.0 700.0000000000002 2000.0 3000.0 700.0000000000002 2160.0
 3100.0 699.9999999999997 2000.0 3100.0 699.9999999999997 2160.0
 3200.0 700.0000000000008 2000.0 3200.0 700.0000000000008 2160.0
 3300.0 700.0000000000006 2000.0 3300.0 700.0000000000006 2160.0
 3400.0 699.9999999999993 2000.0 3400.0 699.9999999999993 2160.0
 3500.0 700.0000000000008 2000.0 3500.0 700.0000000000008 2160.0
 3600.0 700.0000000000002 2000.0 3600.0 700.0000000000002 2160.0
 3700.0 699.9999999999998 2000.0 3700.0 699.9999999999998 2160.0
 3800.0 700.0000000000009 2000.0 3800.0 700.0000000000009 2160.0
 3900.0 700.0000000000015 2000.0 3900.0 700.0000000000015 2160.0
 4000.0 700.0 2000.0 4000.0 700.0 2160.0
 4.898587196589413e-14 800.0 2000.0 4.898587196589413e-14 800.0 2160.0
 100.00000000000007 799.9999999999999 2000.0 100.00000000000007 799.9999999999999 2160.0
 199.99999999999994 800.0 2000.0 199.99999999999994 800.0 2160.0
 300.0 800.0 2000.0 300.0 800.0 2160.0
 400.00000000000006 800.0 2000.0 400.00000000000006 800.0 2160.0
 500.00000000000006 799.9999999999999 2000.0 500.00000000000006 799.9999999999999 2160.0
 600.0 800.0 2000.0 600.0 800.0 2160.0
 700.0 800.0 2000.0 700.0 800.0 2160.0
 800.0 800.0000000000001 2000.0 800.0 800.0000000000001 2160.0
 900.0 800.0000000000001 2000.0 900.0 800.0000000000001 2160.0
 1000.0 799.9999999999999 2000.0 1000.0 799.9999999999999 2160.0
 1100.0 799.9999999999999 2000.0 1100.0 799.9999999999999 2160.0
 1200.0 799.9999999999999 2000.0 1200.0 799.9999999999999 2160.0
 1300.0 799.9999999999998 2000.0 1300.0 799.9999999999998 2160.0
 1400.0 799.9999999999995 2000.0 1400.0 799.9999999999995 2160.0
 1500.0 800.0000000000001 2000.0 1500.0 800.0000000000001 2160.0
 1600.0 800.0000000000001 2000.0 1600.0 800.0000000000001 2160.0
 1700.0 799.9999999999997 2000.0 1700.0 799.9999999999997 2160.0
 1800.0 799.9999999999999 2000.0 1800.0 799.9999999999999 2160.0
 1900.0 800.0000000000001 2000.0 1900.0 800.0000000000001 2160.0
 2000.0 800.0 2000.0 2000.0 800.0 2160.0
 2100.0 799.9999999999999 2000.0 2100.0 799.9999999999999 2160.0
 2200.0 800.0000000000006 2000.0 2200.0 800.0000000000006 2160.0
 2300.0 799.9999999999995 2000.0 2300.0 799.9999999999995 2160.0
 2400.0 800.0000000000003 2000.0 2400.0 800.0000000000003 2160.0
 2500.0 799.9999999999995 2000.0 2500.0 799.9999999999995 2160.0
 2600.0 799.9999999999998 2000.0 2600.0 799.9999999999998 2160.0
 2700.0 800.0 2000.0 2700.0 800.0 2160.0
 2800.0 800.0 2000.0 2800.0 800.0 2160.0
 2900.0 799.9999999999991 2000.0 2900.0 799.9999999999991 2160.0
 3000.0 800.0000000000001 2000.0 3000.0 800.0000000000001 2160.0
 3100.0 800.0000000000001 2000.0 3100.0 800.0000000000001 2160.0
 3200.0 800.0000000000002 2000.0 3200.0 800.0000000000002 2160.0
 3300.0 799.9999999999993 2000.0 3300.0 799.9999999999993 2160.0
 3400.0 799.9999999999987 2000.0 3400.0 799.9999999999987 2160.0
 3500.0 800.0000000000009 2000.0 3500.0 800.0000000000009 2160.0
 3600.0 800.0000000000007 2000.0 3600.0 800.0000000000007 2160.0
 3700.0 800.0000000000001 2000.0 3700.0 800.0000000000001 2160.0
 3800.0 799.9999999999994 2000.0 3800.0 799.9999999999994 2160.0
 3900.0 800.0000000000001 2000.0 3900.0 800.0000000000001 2160.0
 4000.0 800.0000000000009 2000.0 4000.0 800.0000000000009 2160.0
 5.510910596163089e-14 900.0 2000.0 5.510910596163089e-14 900.0 2160.0
 100.00000000000006 900.0 2000.0 100.00000000000006 900.0 2160.0
 200.00000000000003 900.0 2000.0 200.00000000000003 900.0 2160.0
 300.0 900.0 2000.0 300.0 900.0 2160.0
 399.99999999999994 900.0 2000.0 399.99999999999994 900.0 2160.0
 499.99999999999994 900.0 2000.0 499.99999999999994 900.0 2160.0
 600.0 900.0000000000001 2000.0 600.0 900.0000000000001 2160.0
 700.0 900.0000000000001 2000.0 700.0 900.0000000000001 2160.0
 800.0 900.0000000000001 2000.0 800.0 900.0000000000001 2160.0
 900.0 900.0000000000001 2000.0 900.0 900.0000000000001 2160.0
 1000.0 900.0000000000001 2000.0 1000.0 900.0000000000001 2160.0
 1100.0 899.9999999999998 2000.0 1100.0 899.9999999999998 2160.0
 1200.0 899.9999999999998 2000.0 1200.0 899.9999999999998 2160.0
 1300.0 900.0000000000003 2000.0 1300.0 900.0000000000003 2160.0
 1400.0 900.0000000000001 2000.0 1400.0 900.0000000000001 2160.0
 1500.0 900.0 2000.0 1500.0 900.0 2160.0
 1600.0 900.0 2000.0 1600.0 900.0 2160.0
 1700.0 900.0 2000.0 1700.0 900.0 2160.0
 1800.0 900.0000000000001 2000.0 1800.0 900.0000000000001 2160.0
 1900.0 900.0 2000.0 1900.0 900.0 2160.0
 2000.0 900.0 2000.0 2000.0 900.0 2160.0
 2100.0 899.9999999999999 2000.0 2100.0 899.9999999999999 2160.0
 2200.0 900.0000000000001 2000.0 2200.0 900.0000000000001 2160.0
 2300.0 899.9999999999999 2000.0 2300.0 899.9999999999999 2160.0
 2400.0 900.0000000000006 2000.0 2400.0 900.0000000000006 2160.0
 2500.0 900.0 2000.0 2500.0 900.0 2160.0
 2600.0 899.9999999999997 2000.0 2600.0 899.9999999999997 2160.0
 2700.0 900.0000000000005 2000.0 2700.0 900.0000000000005 2160.0
 2800.0 900.0 2000.0 2800.0 900.0 2160.0
 2900.0 900.0 2000.0 2900.0 900.0 2160.0
 3000.0 899.9999999999997 2000.0 3000.0 899.9999999999997 2160.0
 3100.0 899.9999999999998 2000.0 3100.0 899.9999999999998 2160.0
 3200.0 900.000000000001 2000.0 3200.0 900.000000000001 2160.0
 3300.0 900.0000000000009 2000.0 3300.0 900.0000000000009 2160.0
 3400.0 900.0000000000001 2000.0 3400.0 900.0000000000001 2160.0
 3500.0 899.9999999999998 2000.0 3500.0 899.9999999999998 2160.0
 3600.0 900.0000000000002 2000.0 3600.0 900.0000000000002 2160.0
 3700.0 900.0000000000005 2000.0 3700.0 900.0000000000005 2160.0
 3800.0 899.9999999999998 2000.0 3800.0 899.9999999999998 2160.0
 3900.0 899.9999999999985 2000.0 3900.0 899.9999999999985 2160.0
 4000.0 900.0000000000003 2000.0 4000.0 900.0000000000003 2160.0
 6.123233995736766e-14 1000.0 2000.0 6.123233995736766e-14 1000.0 2160.0
 99.99999999999989 1000.0 2000.0 99.99999999999989 1000.0 2160.0
 199.99999999999994 1000.0 2000.0 199.99999999999994 1000.0 2160.0
 300.0 1000.0000000000001 2000.0 300.0 1000.0000000000001 2160.0
 400.00000000000006 1000.0 2000.0 400.00000000000006 1000.0 2160.0
 500.0000000000001 1000.0 2000.0 500.0000000000001 1000.0 2160.0
 599.9999999999999 1000.0 2000.0 599.9999999999999 1000.0 2160.0
 700.0 1000.0 2000.0 700.0 1000.0 2160.0
 800.0 999.9999999999999 2000.0 800.0 999.9999999999999 2160.0
 900.0 1000.0000000000001 2000.0 900.0 1000.0000000000001 2160.0
 1000.0 1000.0000000000001 2000.0 1000.0 1000.0000000000001 2160.0
 1100.0 999.9999999999999 2000.0 1100.0 999.9999999999999 2160.0
 1200.0 1000.0 2000.0 1200.0 1000.0 2160.0
 1300.0 1000.0000000000001 2000.0 1300.0 1000.0000000000001 2160.0
 1400.0 999.9999999999999 2000.0 1400.0 999.9999999999999 2160.0
 1500.0 1000.0000000000003 2000.0 1500.0 1000.0000000000003 2160.0
 1600.0 999.9999999999999 2000.0 1600.0 999.9999999999999 2160.0
 1700.0 999.9999999999999 2000.0 1700.0 999.9999999999999 2160.0
 1800.0 999.9999999999998 2000.0 1800.0 999.9999999999998 2160.0
 1900.0 1000.0000000000001 2000.0 1900.0 1000.0000000000001 2160.0
 2000.0 1000.0000000000001 2000.0 2000.0 1000.0000000000001 2160.0
 2100.0 1000.0000000000003 2000.0 2100.0 1000.0000000000003 2160.0
 2200.0 999.9999999999997 2000.0 2200.0 999.9999999999997 2160.0
 2300.0 999.9999999999999 2000.0 2300.0 999.9999999999999 2160.0
 2400.0 999.9999999999997 2000.0 2400.0 999.9999999999997 2160.0
 2500.0 1000.0 2000.0 2500.0 1000.0 2160.0
 2600.0 1000.0000000000003 2000.0 2600.0 1000.0000000000003 2160.0
 2700.0 999.9999999999993 2000.0 2700.0 999.9999999999993 2160.0
 2800.0 999.9999999999992 2000.0 2800.0 999.9999999999992 2160.0
 2900.0 1000.0000000000001 2000.0 2900.0 1000.0000000000001 2160.0
 3000.0 1000.0000000000005 2000.0 3000.0 1000.0000000000005 2160.0
 3100.0 999.9999999999997 2000.0 3100.0 999.9999999999997 2160.0
 3200.0 999.9999999999992 2000.0 3200.0 999.9999999999992 2160.0
 3300.0 999.9999999999997 2000.0 3300.0 999.9999999999997 2160.0
 3400.0 999.9999999999987 2000.0 3400.0 999.9999999999987 2160.0
 3500.0 1000.0000000000001 2000.0 3500.0 1000.0000000000001 2160.0
 3600.0 999.9999999999995 2000.0 3600.0 999.9999999999995 2160.0
 3700.0 999.9999999999994 2000.0 3700.0 999.9999999999994 2160.0
 3800.0 999.999999999999 2000.0 3800.0 999.999999999999 2160.0
 3900.0 1000.0000000000011 2000.0 3900.0 1000.0000000000011 2160.0
 4000.0 1000.0000000000003 2000.0 4000.0 1000.0000000000003 2160.0
 6.735557395310443e-14 1100.0 2000.0 6.735557395310443e-14 1100.0 2160.0
 100.00000000000009 1100.0 2000.0 100.00000000000009 1100.0 2160.0
 199.9999999999999 1100.0 2000.0 199.9999999999999 1100.0 2160.0
 300.0 1100.0 2000.0 300.0 1100.0 2160.0
 400.0 1100.0 2000.0 400.0 1100.0 2160.0
 500.00000000000006 1099.9999999999998 2000.0 500.00000000000006 1099.9999999999998 2160.0
 599.9999999999999 1100.0 2000.0 599.9999999999999 1100.0 2160.0
 700.0 1100.0 2000.0 700.0 1100.0 2160.0
 800.0000000000001 1099.9999999999998 2000.0 800.0000000000001 1099.9999999999998 2160.0
 900.0 1100.0 2000.0 900.0 1100.0 2160.0
 1000.0 1100.0 2000.0 1000.0 1100.0 2160.0
 1100.0 1100.0000000000002 2000.0 1100.0 1100.0000000000002 2160.0
 1200.0 1100.0 2000.0 1200.0 1100.0 2160.0
 1300.0 1100.0 2000.0 1300.0 1100.0 2160.0
 1400.0 1100.0 2000.0 1400.0 1100.0 2160.0
 1500.0 1099.9999999999998 2000.0 1500.0 1099.9999999999998 2160.0
 1600.0 1100.0 2000.0 1600.0 1100.0 2160.0
 1700.0 1100.0000000000002 2000.0 1700.0 1100.0000000000002 2160.0
 1800.0 1100.0 2000.0 1800.0 1100.0 2160.0
 1900.0 1099.9999999999993 2000.0 1900.0 1099.9999999999993 2160.0
 2000.0 1100.0000000000002 2000.0 2000.0 1100.0000000000002 2160.0
 2100.0 1100.0000000000002 2000.0 2100.0 1100.0000000000002 2160.0
 2200.0 1099.9999999999995 2000.0 2200.0 1099.9999999999995 2160.0
 2300.0 1100.0000000000005 2000.0 2300.0 1100.0000000000005 2160.0
 2400.0 1100.0 2000.0 2400.0 1100.0 2160.0
 2500.0 1100.0000000000002 2000.0 2500.0 1100.0000000000002 2160.0
 2600.0 1100.0000000000005 2000.0 2600.0 1100.0000000000005 2160.0
 2700.0 1100.0 2000.0 2700.0 1100.0 2160.0
 2800.0 1099.9999999999998 2000.0 2800.0 1099.9999999999998 2160.0
 2900.0 1100.0000000000005 2000.0 2900.0 1100.0000000000005 2160.0
 3000.0 1099.9999999999995 2000.0 3000.0 1099.9999999999995 2160.0
 3100.0 1099.9999999999995 2000.0 3100.0 1099.9999999999995 2160.0
 3200.0 1099.999999999999 2000.0 3200.0 1099.999999999999 2160.0
 3300.0 1100.0000000000005 2000.0 3300.0 1100.0000000000005 2160.0
 3400.0 1100.0000000000007 2000.0 3400.0 1100.0000000000007 2160.0
 3500.0 1100.0000000000005 2000.0 3500.0 1100.0000000000005 2160.0
 3600.0 1100.0000000000011 2000.0 3600.0 1100.0000000000011 2160.0
 3700.0 1099.9999999999998 2000.0 3700.0 1099.9999999999998 2160.0
 3800.0 1100.0000000000002 2000.0 3800.0 1100.0000000000002 2160.0
 3900.0 1099.9999999999998 2000.0 3900.0 1099.9999999999998 2160.0
 4000.0 1099.9999999999982 2000.0 4000.0 1099.9999999999982 2160.0