SPECGRID
 50 50 20 1 F
 /
COORD
 0.0 0.0 2000.0 0.0 0.0 2157.5
 80.0 0.0 2000.0 80.0 0.0 2157.5
 160.0 0.0 2000.0 160.0 0.0 2157.5
 240.0 0.0 2000.0 240.0 0.0 2157.5
 320.0 0.0 2000.0 320.0 0.0 2157.5
 400.0 0.0 2000.0 400.0 0.0 2157.5
 480.0 0.0 2000.0 480.0 0.0 2157.5
 560.0 0.0 2000.0 560.0 0.0 2157.5
 640.0 0.0 2000.0 640.0 0.0 2157.5
 720.0 0.0 2000.0 720.0 0.0 2157.5
 800.0 0.0 2000.0 800.0 0.0 2157.5
 880.0 0.0 2000.0 880.0 0.0 2157.5
 960.0 0.0 2000.0 960.0 0.0 2157.5
 1040.0 0.0 2000.0 1040.0 0.0 2157.5
 1120.0 0.0 2000.0 1120.0 0.0 2157.5
 1200.0 0.0 2000.0 1200.0 0.0 2157.5
 1280.0 0.0 2000.0 1280.0 0.0 2157.5
 1360.0 0.0 2000.0 1360.0 0.0 2157.5
 1440.0 0.0 2000.0 1440.0 0.0 2157.5
 1520.0 0.0 2000.0 1520.0 0.0 2157.5
 1600.0 0.0 2000.0 1600.0 0.0 2157.5
 1680.0 0.0 2000.0 1680.0 0.0 2157.5
 1760.0 0.0 2000.0 1760.0 0.0 2157.5
 1840.0 0.0 2000.0 1840.0 0.0 2157.5
 1920.0 0.0 2000.0 1920.0 0.0 2157.5
 2000.0 0.0 2000.0 2000.0 0.0 2157.5
 2080.0 0.0 2000.0 2080.0 0.0 2157.5
 2160.0 0.0 2000.0 2160.0 0.0 2157.5
 2240.0 0.0 2000.0 2240.0 0.0 2157.5
 2320.0 0.0 2000.0 2320.0 0.0 2157.5
 2400.0 0.0 2000.0 2400.0 0.0 2157.5
 2480.0 0.0 2000.0 2480.0 0.0 2157.5
 2560.0 0.0 2000.0 2560.0 0.0 2157.5
 2640.0 0.0 2000.0 2640.0 0.0 2157.5
 2720.0 0.0 2000.0 2720.0 0.0 2157.5
 2800.0 0.0 2000.0 2800.0 0.0 2157.5
 2880.0 0.0 2000.0 2880.0 0.0 2157.5
 2960.0 0.0 2000.0 2960.0 0.0 2157.5
 3040.0 0.0 2000.0 3040.0 0.0 2157.5
 3120.0 0.0 2000.0 3120.0 0.0 2157.5
 3200.0 0.0 2000.0 3200.0 0.0 2157.5
 3280.0 0.0 2000.0 3280.0 0.0 2157.5
 3360.0 0.0 2000.0 3360.0 0.0 2157.5
 3440.0 0.0 2000.0 3440.0 0.0 2157.5
 3520.0 0.0 2000.0 3520.0 0.0 2157.5
 3600.0 0.0 2000.0 3600.0 0.0 2157.5
 3680.0 0.0 2000.0 3680.0 0.0 2157.5
 3760.0 0.0 2000.0 3760.0 0.0 2157.5
 3840.0 0.0 2000.0 3840.0 0.0 2157.5
 3920.0 0.0 2000.0 3920.0 0.0 2157.5
 4000.0 0.0 2000.0 4000.0 0.0 2157.5
 4.898587196589413e-15 80.0 2000.0 4.898587196589413e-15 80.0 2157.5
 80.0 80.00000000000001 2000.0 80.0 80.00000000000001 2157.5
 160.0 80.00000000000001 2000.0 160.0 80.00000000000001 2157.5
 240.0 80.00000000000003 2000.0 240.0 80.00000000000003 2157.5
 320.0 80.00000000000003 2000.0 320.0 80.00000000000003 2157.5
 400.0 80.0000000000001 2000.0 400.0 80.0000000000001 2157.5
 480.0 79.99999999999996 2000.0 480.0 79.99999999999996 2157.5
 560.0 80.00000000000026 2000.0 560.0 80.00000000000026 2157.5
 640.0 79.99999999999953 2000.0 640.0 79.99999999999953 2157.5
 720.0 80.0000000000007 2000.0 720.0 80.0000000000007 2157.5
 800.0 79.99999999999986 2000.0 800.0 79.99999999999986 2157.5
 880.0 79.9999999999999 2000.0 880.0 79.9999999999999 2157.5
 960.0 79.99999999999942 2000.0 960.0 79.99999999999942 2157.5
 1040.0 79.99999999999956 2000.0 1040.0 79.99999999999956 2157.5
 1120.0 80.00000000000023 2000.0 1120.0 80.00000000000023 2157.5
 1200.0 79.99999999999848 2000.0 1200.0 79.99999999999848 2157.5
 1280.0 80.00000000000044 2000.0 1280.0 80.00000000000044 2157.5
 1360.0 80.00000000000072 2000.0 1360.0 80.00000000000072 2157.5
 1440.0 79.99999999999824 2000.0 1440.0 79.99999999999824 2157.5
 1520.0 79.99999999999856 2000.0 1520.0 79.99999999999856 2157.5
 1600.0 80.00000000000088 2000.0 1600.0 80.00000000000088 2157.5
 1680.0 79.99999999999842 2000.0 1680.0 79.99999999999842 2157.5
 1760.0 80.00000000000422 2000.0 1760.0 80.00000000000422 2157.5
 1840.0 80.00000000000382 2000.0 1840.0 80.00000000000382 2157.5
 1920.0 80.00000000000215 2000.0 1920.0 80.00000000000215 2157.5
 2000.0 80.00000000000223 2000.0 2000.0 80.00000000000223 2157.5
 2080.0 79.99999999999383 2000.0 2080.0 79.99999999999383 2157.5
 2160.0 79.99999999999974 2000.0 2160.0 79.99999999999974 2157.5
 2240.0 79.99999999999866 2000.0 2240.0 79.99999999999866 2157.5
 2320.0 79.9999999999993 2000.0 2320.0 79.9999999999993 2157.5
 2400.0 80.00000000000055 2000.0 2400.0 80.00000000000055 2157.5
 2480.0 80.00000000000507 2000.0 2480.0 80.00000000000507 2157.5
 2560.0 80.00000000000028 2000.0 2560.0 80.00000000000028 2157.5
 2640.0 79.99999999999802 2000.0 2640.0 79.99999999999802 2157.5
 2720.0 79.99999999998919 2000.0 2720.0 79.99999999998919 2157.5
 2800.0 79.99999999999874 2000.0 2800.0 79.99999999999874 2157.5
 2880.0 79.9999999999997 2000.0 2880.0 79.9999999999997 2157.5
 2960.0 79.99999999998856 2000.0 2960.0 79.99999999998856 2157.5
 3040.0 80.00000000000828 2000.0 3040.0 80.00000000000828 2157.5
 3120.0 79.99999999999321 2000.0 3120.0 79.99999999999321 2157.5
 3200.0 80.00000000000855 2000.0 3200.0 80.00000000000855 2157.5
 3280.0 79.99999999999956 2000.0 3280.0 79.99999999999956 2157.5
 3360.0 80.00000000000027 2000.0 3360.0 80.00000000000027 2157.5
 3440.0 80.00000000000323 2000.0 3440.0 80.00000000000323 2157.5
 3520.0 79.99999999999065 2000.0 3520.0 79.99999999999065 2157.5
 3600.0 80.00000000001502 2000.0 3600.0 80.00000000001502 2157.5
 3680.0 80.00000000001705 2000.0 3680.0 80.00000000001705 2157.5
 3760.0 79.99999999998265 2000.0 3760.0 79.99999999998265 2157.5
 3840.0 80.00000000000091 2000.0 3840.0 80.00000000000091 2157.5
 3920.0 80.00000000000175 2000.0 3920.0 80.00000000000175 2157.5
 4000.0 80.00000000000286 2000.0 4000.0 80.00000000000286 2157.5
 9.797174393178826e-15 160.0 2000.0 9.797174393178826e-15 160.0 2157.5
 80.00000000000003 160.0 2000.0 80.00000000000003 160.0 2157.5
 160.0 160.00000000000003 2000.0 160.0 160.00000000000003 2157.5
 240.0 159.99999999999997 2000.0 240.0 159.99999999999997 2157.5
 320.0 160.00000000000003 2000.0 320.0 160.00000000000003 2157.5
 400.0 160.0 2000.0 400.0 160.0 2157.5
 480.0 160.00000000000006 2000.0 480.0 160.00000000000006 2157.5
 560.0 160.00000000000003 2000.0 560.0 160.00000000000003 2157.5
 640.0 160.00000000000006 2000.0 640.0 160.00000000000006 2157.5
 720.0 160.00000000000014 2000.0 720.0 160.00000000000014 2157.5
 800.0 160.0000000000002 2000.0 800.0 160.0000000000002 2157.5
 880.0 160.00000000000017 2000.0 880.0 160.00000000000017 2157.5
 960.0 159.99999999999991 2000.0 960.0 159.99999999999991 2157.5
 1040.0 160.00000000000006 2000.0 1040.0 160.00000000000006 2157.5
 1120.0 160.0000000000005 2000.0 1120.0 160.0000000000005 2157.5
 1200.0 160.00000000000105 2000.0 1200.0 160.00000000000105 2157.5
 1280.0 159.99999999999906 2000.0 1280.0 159.99999999999906 2157.5
 1360.0 159.99999999999912 2000.0 1360.0 159.99999999999912 2157.5
 1440.0 160.0000000000014 2000.0 1440.0 160.0000000000014 2157.5
 1520.0 160.00000000000028 2000.0 1520.0 160.00000000000028 2157.5
 1600.0 159.99999999999972 2000.0 1600.0 159.99999999999972 2157.5
 1680.0 160.00000000000125 2000.0 1680.0 160.00000000000125 2157.5
 1760.0 159.9999999999998 2000.0 1760.0 159.9999999999998 2157.5
 1840.0 159.99999999999955 2000.0 1840.0 159.99999999999955 2157.5
 1920.0 159.99999999999883 2000.0 1920.0 159.99999999999883 2157.5
 2000.0 159.99999999999847 2000.0 2000.0 159.99999999999847 2157.5
 2080.0 159.99999999999912 2000.0 2080.0 159.99999999999912 2157.5
 2160.0 160.0000000000003 2000.0 2160.0 160.0000000000003 2157.5
 2240.0 160.00000000000045 2000.0 2240.0 160.00000000000045 2157.5
 2320.0 159.99999999999784 2000.0 2320.0 159.99999999999784 2157.5
 2400.0 159.99999999999696 2000.0 2400.0 159.99999999999696 2157.5
 2480.0 159.9999999999992 2000.0 2480.0 159.9999999999992 2157.5
 2560.0 160.00000000000088 2000.0 2560.0 160.00000000000088 2157.5
 2640.0 159.9999999999976 2000.0 2640.0 159.9999999999976 2157.5
 2720.0 160.00000000000145 2000.0 2720.0 160.00000000000145 2157.5
 2800.0 160.0000000000003 2000.0 2800.0 160.0000000000003 2157.5
 2880.0 159.99999999999648 2000.0 2880.0 159.99999999999648 2157.5
 2960.0 160.0000000000062 2000.0 2960.0 160.0000000000062 2157.5
 3040.0 159.99999999999713 2000.0 3040.0 159.99999999999713 2157.5
 3120.0 160.00000000000273 2000.0 3120.0 160.00000000000273 2157.5
 3200.0 160.00000000000176 2000.0 3200.0 160.00000000000176 2157.5
 3280.0 160.00000000000375 2000.0 3280.0 160.00000000000375 2157.5
 3360.0 159.99999999999685 2000.0 3360.0 159.99999999999685 2157.5
 3440.0 160.00000000000182 2000.0 3440.0 160.00000000000182 2157.5
 3520.0 160.00000000000844 2000.0 3520.0 160.00000000000844 2157.5
 3600.0 159.99999999999685 2000.0 3600.0 159.99999999999685 2157.5
 3680.0 160.00000000000765 2000.0 3680.0 160.00000000000765 2157.5
 3760.0 160.00000000000068 2000.0 3760.0 160.00000000000068 2157.5
 3840.0 160.0000000000043 2000.0 3840.0 160.0000000000043 2157.5
 3920.0 160.0000000000003 2000.0 3920.0 160.0000000000003 2157.5
 4000.0 160.00000000000446 2000.0 4000.0 160.00000000000446 2157.5
 1.469576158976824e-14 240.0 2000.0 1.469576158976824e-14 240.0 2157.5
 80.0 240.0 2000.0 80.0 240.0 2157.5
 160.0 240.0 2000.0 160.0 240.0 2157.5
 240.0 240.00000000000003 2000.0 240.0 240.00000000000003 2157.5
 320.0 239.99999999999994 2000.0 320.0 239.99999999999994 2157.5
 400.0 240.00000000000003 2000.0 400.0 240.00000000000003 2157.5
 480.0 239.9999999999999 2000.0 480.0 239.9999999999999 2157.5
 560.0 240.00000000000017 2000.0 560.0 240.00000000000017 2157.5
 640.0 239.99999999999991 2000.0 640.0 239.99999999999991 2157.5
 720.0 239.99999999999983 2000.0 720.0 239.99999999999983 2157.5
 800.0 239.99999999999991 2000.0 800.0 239.99999999999991 2157.5
 880.0 239.99999999999983 2000.0 880.0 239.99999999999983 2157.5
 960.0 240.00000000000009 2000.0 960.0 240.00000000000009 2157.5
 1040.0 240.00000000000014 2000.0 1040.0 240.00000000000014 2157.5
 1120.0 239.99999999999972 2000.0 1120.0 239.99999999999972 2157.5
 1200.0 240.00000000000028 2000.0 1200.0 240.00000000000028 2157.5
 1280.0 240.0000000000001 2000.0 1280.0 240.0000000000001 2157.5
 1360.0 240.00000000000026 2000.0 1360.0 240.00000000000026 2157.5
 1440.0 239.9999999999999 2000.0 1440.0 239.9999999999999 2157.5
 1520.0 240.00000000000014 2000.0 1520.0 240.00000000000014 2157.5
 1600.0 240.0000000000002 2000.0 1600.0 240.0000000000002 2157.5
 1680.0 240.00000000000077 2000.0 1680.0 240.00000000000077 2157.5
 1760.0 240.00000000000063 2000.0 1760.0 240.00000000000063 2157.5
 1840.0 239.9999999999994 2000.0 1840.0 239.9999999999994 2157.5
 1920.0 240.00000000000034 2000.0 1920.0 240.00000000000034 2157.5
 2000.0 240.00000000000102 2000.0 2000.0 240.00000000000102 2157.5
 2080.0 240.00000000000264 2000.0 2080.0 240.00000000000264 2157.5
 2160.0 239.99999999999773 2000.0 2160.0 239.99999999999773 2157.5
 2240.0 239.99999999999912 2000.0 2240.0 239.99999999999912 2157.5
 2320.0 239.99999999999736 2000.0 2320.0 239.99999999999736 2157.5
 2400.0 239.9999999999996 2000.0 2400.0 239.9999999999996 2157.5
 2480.0 240.00000000000085 2000.0 2480.0 240.00000000000085 2157.5
 2560.0 239.99999999999787 2000.0 2560.0 239.99999999999787 2157.5
 2640.0 239.9999999999997 2000.0 2640.0 239.9999999999997 2157.5
 2720.0 239.99999999999864 2000.0 2720.0 239.99999999999864 2157.5
 2800.0 240.00000000000043 2000.0 2800.0 240.00000000000043 2157.5
 2880.0 239.99999999999824 2000.0 2880.0 239.99999999999824 2157.5
 2960.0 240.00000000000279 2000.0 2960.0 240.00000000000279 2157.5
 3040.0 239.9999999999968 2000.0 3040.0 239.9999999999968 2157.5
 3120.0 239.9999999999987 2000.0 3120.0 239.9999999999987 2157.5
 3200.0 240.00000000000435 2000.0 3200.0 240.00000000000435 2157.5
 3280.0 239.99999999999943 2000.0 3280.0 239.99999999999943 2157.5
 3360.0 240.00000000000068 2000.0 3360.0 240.00000000000068 2157.5
 3440.0 240.00000000000034 2000.0 3440.0 240.00000000000034 2157.5
 3520.0 239.99999999999912 2000.0 3520.0 239.99999999999912 2157.5
 3600.0 240.0000000000015 2000.0 3600.0 240.0000000000015 2157.5
 3680.0 240.00000000000338 2000.0 3680.0 240.00000000000338 2157.5
 3760.0 239.99999999999667 2000.0 3760.0 239.99999999999667 2157.5
 3840.0 239.9999999999945 2000.0 3840.0 239.9999999999945 2157.5
 3920.0 240.0000000000009 2000.0 3920.0 240.0000000000009 2157.5
 4000.0 240.00000000000645 2000.0 4000.0 240.00000000000645 2157.5
 1.9594348786357652e-14 320.0 2000.0 1.9594348786357652e-14 320.0 2157.5
 79.99999999999997 320.0 2000.0 79.99999999999997 320.0 2157.5
 160.00000000000006 320.0 2000.0 160.00000000000006 320.0 2157.5
 240.0 320.0 2000.0 240.0 320.0 2157.5
 320.0 320.00000000000006 2000.0 320.0 320.00000000000006 2157.5
 400.0 319.99999999999994 2000.0 400.0 319.99999999999994 2157.5
 480.0 319.99999999999994 2000.0 480.0 319.99999999999994 2157.5
 560.0 319.99999999999983 2000.0 560.0 319.99999999999983 2157.5
 640.0 320.00000000000006 2000.0 640.0 320.00000000000006 2157.5
 720.0 319.99999999999994 2000.0 720.0 319.99999999999994 2157.5
 800.0 320.0 2000.0 800.0 320.0 2157.5
 880.0 320.0000000000002 2000.0 880.0 320.0000000000002 2157.5
 960.0 320.0000000000001 2000.0 960.0 320.0000000000001 2157.5
 1040.0 319.99999999999994 2000.0 1040.0 319.99999999999994 2157.5
 1120.0 320.00000000000006 2000.0 1120.0 320.00000000000006 2157.5
 1200.0 320.00000000000006 2000.0 1200.0 320.00000000000006 2157.5
 1280.0 320.0000000000001 2000.0 1280.0 320.0000000000001 2157.5
 1360.0 320.00000000000017 2000.0 1360.0 320.00000000000017 2157.5
 1440.0 320.0000000000003 2000.0 1440.0 320.0000000000003 2157.5
 1520.0 320.00000000000057 2000.0 1520.0 320.00000000000057 2157.5
 1600.0 320.0000000000004 2000.0 1600.0 320.0000000000004 2157.5
 1680.0 319.9999999999999 2000.0 1680.0 319.9999999999999 2157.5
 1760.0 320.00000000000034 2000.0 1760.0 320.00000000000034 2157.5
 1840.0 319.9999999999999 2000.0 1840.0 319.9999999999999 2157.5
 1920.0 319.99999999999983 2000.0 1920.0 319.99999999999983 2157.5
 2000.0 319.9999999999996 2000.0 2000.0 319.9999999999996 2157.5
 2080.0 320.0000000000001 2000.0 2080.0 320.0000000000001 2157.5
 2160.0 320.00000000000017 2000.0 2160.0 320.00000000000017 2157.5
 2240.0 320.000000000001 2000.0 2240.0 320.000000000001 2157.5
 2320.0 319.99999999999886 2000.0 2320.0 319.99999999999886 2157.5
 2400.0 320.0000000000021 2000.0 2400.0 320.0000000000021 2157.5
 2480.0 320.0000000000006 2000.0 2480.0 320.0000000000006 2157.5
 2560.0 319.9999999999981 2000.0 2560.0 319.9999999999981 2157.5
 2640.0 320.0000000000016 2000.0 2640.0 320.0000000000016 2157.5
 2720.0 319.99999999999824 2000.0 2720.0 319.99999999999824 2157.5
 2800.0 320.0000000000021 2000.0 2800.0 320.0000000000021 2157.5
 2880.0 320.0000000000028 2000.0 2880.0 320.0000000000028 2157.5
 2960.0 319.99999999999875 2000.0 2960.0 319.99999999999875 2157.5
 3040.0 320.00000000000057 2000.0 3040.0 320.00000000000057 2157.5
 3120.0 319.9999999999972 2000.0 3120.0 319.9999999999972 2157.5
 3200.0 319.99999999999943 2000.0 3200.0 319.99999999999943 2157.5
 3280.0 319.9999999999976 2000.0 3280.0 319.9999999999976 2157.5
 3360.0 320.0000000000025 2000.0 3360.0 320.0000000000025 2157.5
 3440.0 319.99999999999886 2000.0 3440.0 319.99999999999886 2157.5
 3520.0 319.9999999999996 2000.0 3520.0 319.9999999999996 2157.5
 3600.0 320.0000000000028 2000.0 3600.0 320.0000000000028 2157.5
 3680.0 319.9999999999991 2000.0 3680.0 319.9999999999991 2157.5
 3760.0 320.00000000000017 2000.0 3760.0 320.00000000000017 2157.5
 3840.0 319.99999999999767 2000.0 3840.0 319.99999999999767 2157.5
 3920.0 319.9999999999974 2000.0 3920.0 319.9999999999974 2157.5
 4000.0 319.99999999999693 2000.0 4000.0 319.99999999999693 2157.5
 2.4492935982947064e-14 400.0 2000.0 2.4492935982947064e-14 400.0 2157.5
 79.99999999999999 400.0 2000.0 79.99999999999999 400.0 2157.5
 160.00000000000003 400.0 2000.0 160.00000000000003 400.0 2157.5
 239.99999999999997 400.0 2000.0 239.99999999999997 400.0 2157.5
 320.0 399.99999999999994 2000.0 320.0 399.99999999999994 2157.5
 400.0 400.00000000000006 2000.0 400.0 400.00000000000006 2157.5
 480.0 399.99999999999994 2000.0 480.0 399.99999999999994 2157.5
 560.0 400.00000000000006 2000.0 560.0 400.00000000000006 2157.5
 640.0 400.00000000000006 2000.0 640.0 400.00000000000006 2157.5
 720.0 400.00000000000006 2000.0 720.0 400.00000000000006 2157.5
 800.0 400.00000000000006 2000.0 800.0 400.00000000000006 2157.5
 880.0 400.00000000000017 2000.0 880.0 400.00000000000017 2157.5
 960.0 399.99999999999983 2000.0 960.0 399.99999999999983 2157.5
 1040.0 400.00000000000017 2000.0 1040.0 400.00000000000017 2157.5
 1120.0 400.0 2000.0 1120.0 400.0 2157.5
 1200.0 400.00000000000017 2000.0 1200.0 400.00000000000017 2157.5
 1280.0 399.9999999999997 2000.0 1280.0 399.9999999999997 2157.5
 1360.0 399.9999999999995 2000.0 1360.0 399.9999999999995 2157.5
 1440.0 400.00000000000045 2000.0 1440.0 400.00000000000045 2157.5
 1520.0 399.9999999999996 2000.0 1520.0 399.9999999999996 2157.5
 1600.0 400.0000000000001 2000.0 1600.0 400.0000000000001 2157.5
 1680.0 400.0000000000008 2000.0 1680.0 400.0000000000008 2157.5
 1760.0 400.0000000000005 2000.0 1760.0 400.0000000000005 2157.5
 1840.0 399.99999999999994 2000.0 1840.0 399.99999999999994 2157.5
 1920.0 399.99999999999943 2000.0 1920.0 399.99999999999943 2157.5
 2000.0 400.00000000000045 2000.0 2000.0 400.00000000000045 2157.5
 2080.0 400.00000000000017 2000.0 2080.0 400.00000000000017 2157.5
 2160.0 400.0 2000.0 2160.0 400.0 2157.5
 2240.0 400.000000000001 2000.0 2240.0 400.000000000001 2157.5
 2320.0 400.0 2000.0 2320.0 400.0 2157.5
 2400.0 399.99999999999983 2000.0 2400.0 399.99999999999983 2157.5
 2480.0 399.99999999999983 2000.0 2480.0 399.99999999999983 2157.5
 2560.0 400.0000000000013 2000.0 2560.0 400.0000000000013 2157.5
 2640.0 399.9999999999998 2000.0 2640.0 399.9999999999998 2157.5
 2720.0 400.0000000000021 2000.0 2720.0 400.0000000000021 2157.5
 2800.0 400.00000000000125 2000.0 2800.0 400.00000000000125 2157.5
 2880.0 400.0000000000004 2000.0 2880.0 400.0000000000004 2157.5
 2960.0 399.9999999999993 2000.0 2960.0 399.9999999999993 2157.5
 3040.0 400.0000000000014 2000.0 3040.0 400.0000000000014 2157.5
 3120.0 399.99999999999966 2000.0 3120.0 399.99999999999966 2157.5
 3200.0 399.99999999999767 2000.0 3200.0 399.99999999999767 2157.5
 3280.0 400.0000000000003 2000.0 3280.0 400.0000000000003 2157.5
 3360.0 400.0000000000017 2000.0 3360.0 400.0000000000017 2157.5
 3440.0 400.0000000000006 2000.0 3440.0 400.0000000000006 2157.5
 3520.0 399.99999999999807 2000.0 3520.0 399.99999999999807 2157.5
 3600.0 399.99999999999994 2000.0 3600.0 399.99999999999994 2157.5
 3680.0 399.9999999999996 2000.0 3680.0 399.9999999999996 2157.5
 3760.0 400.00000000000335 2000.0 3760.0 400.00000000000335 2157.5
 3840.0 400.00000000000097 2000.0 3840.0 400.00000000000097 2157.5
 3920.0 399.9999999999984 2000.0 3920.0 399.9999999999984 2157.5
 4000.0 399.9999999999993 2000.0 4000.0 399.9999999999993 2157.5
 2.939152317953648e-14 480.0 2000.0 2.939152317953648e-14 480.0 2157.5
 79.99999999999996 480.0 2000.0 79.99999999999996 480.0 2157.5
 160.0 480.0 2000.0 160.0 480.0 2157.5
 240.00000000000003 479.99999999999994 2000.0 240.00000000000003 479.99999999999994 2157.5
 320.0 480.0 2000.0 320.0 480.0 2157.5
 400.0 479.9999999999999 2000.0 400.0 479.9999999999999 2157.5
 480.0 480.00000000000006 2000.0 480.0 480.00000000000006 2157.5
 560.0 480.0 2000.0 560.0 480.0 2157.5
 640.0 479.9999999999999 2000.0 640.0 479.9999999999999 2157.5
 720.0 479.99999999999994 2000.0 720.0 479.99999999999994 2157.5
 800.0 480.00000000000006 2000.0 800.0 480.00000000000006 2157.5
 880.0 480.0 2000.0 880.0 480.0 2157.5
 960.0 479.9999999999998 2000.0 960.0 479.9999999999998 2157.5
 1040.0 479.99999999999994 2000.0 1040.0 479.99999999999994 2157.5
 1120.0 480.00000000000034 2000.0 1120.0 480.00000000000034 2157.5
 1200.0 480.0 2000.0 1200.0 480.0 2157.5
 1280.0 479.99999999999983 2000.0 1280.0 479.99999999999983 2157.5
 1360.0 479.99999999999994 2000.0 1360.0 479.99999999999994 2157.5
 1440.0 479.99999999999966 2000.0 1440.0 479.99999999999966 2157.5
 1520.0 479.99999999999966 2000.0 1520.0 479.99999999999966 2157.5
 1600.0 479.99999999999983 2000.0 1600.0 479.99999999999983 2157.5
 1680.0 480.00000000000006 2000.0 1680.0 480.00000000000006 2157.5
 1760.0 479.99999999999966 2000.0 1760.0 479.99999999999966 2157.5
 1840.0 479.99999999999966 2000.0 1840.0 479.99999999999966 2157.5
 1920.0 480.00000000000017 2000.0 1920.0 480.00000000000017 2157.5
 2000.0 479.99999999999994 2000.0 2000.0 479.99999999999994 2157.5
 2080.0 480.0000000000003 2000.0 2080.0 480.0000000000003 2157.5
 2160.0 479.9999999999992 2000.0 2160.0 479.9999999999992 2157.5
 2240.0 479.99999999999943 2000.0 2240.0 479.99999999999943 2157.5
 2320.0 479.99999999999903 2000.0 2320.0 479.99999999999903 2157.5
 2400.0 480.00000000000057 2000.0 2400.0 480.00000000000057 2157.5
 2480.0 479.9999999999984 2000.0 2480.0 479.9999999999984 2157.5
 2560.0 480.0000000000002 2000.0 2560.0 480.0000000000002 2157.5
 2640.0 480.00000000000057 2000.0 2640.0 480.00000000000057 2157.5
 2720.0 480.0000000000005 2000.0 2720.0 480.0000000000005 2157.5
 2800.0 479.9999999999991 2000.0 2800.0 479.9999999999991 2157.5
 2880.0 479.9999999999998 2000.0 2880.0 479.9999999999998 2157.5
 2960.0 480.0000000000011 2000.0 2960.0 480.0000000000011 2157.5
 3040.0 480.0000000000003 2000.0 3040.0 480.0000000000003 2157.5
 3120.0 480.00000000000017 2000.0 3120.0 480.00000000000017 2157.5
 3200.0 480.0000000000004 2000.0 3200.0 480.0000000000004 2157.5
 3280.0 480.0000000000007 2000.0 3280.0 480.0000000000007 2157.5
 3360.0 480.00000000000153 2000.0 3360.0 480.00000000000153 2157.5
 3440.0 480.0000000000001 2000.0 3440.0 480.0000000000001 2157.5
 3520.0 480.00000000000125 2000.0 3520.0 480.00000000000125 2157.5
 3600.0 480.0000000000001 2000.0 3600.0 480.0000000000001 2157.5
 3680.0 479.9999999999988 2000.0 3680.0 479.9999999999988 2157.5
 3760.0 479.9999999999984 2000.0 3760.0 479.9999999999984 2157.5
 3840.0 480.0000000000007 2000.0 3840.0 480.0000000000007 2157.5
 3920.0 480.0000000000027 2000.0 3920.0 480.0000000000027 2157.5
 4000.0 480.00000000000205 2000.0 4000.0 480.00000000000205 2157.5
 3.429011037612589e-14 560.0 2000.0 3.429011037612589e-14 560.0 2157.5
 79.99999999999997 560.0 2000.0 79.99999999999997 560.0 2157.5
 159.99999999999994 560.0 2000.0 159.99999999999994 560.0 2157.5
 240.00000000000003 560.0 2000.0 240.00000000000003 560.0 2157.5
 320.00000000000006 559.9999999999999 2000.0 320.00000000000006 559.9999999999999 2157.5
 400.0 560.0000000000001 2000.0 400.0 560.0000000000001 2157.5
 480.0 560.0000000000001 2000.0 480.0 560.0000000000001 2157.5
 560.0 560.0000000000001 2000.0 560.0 560.0000000000001 2157.5
 640.0 560.0 2000.0 640.0 560.0 2157.5
 720.0 559.9999999999999 2000.0 720.0 559.9999999999999 2157.5
 800.0 560.0 2000.0 800.0 560.0 2157.5
 880.0 559.9999999999998 2000.0 880.0 559.9999999999998 2157.5
 960.0 560.0 2000.0 960.0 560.0 2157.5
 1040.0 559.9999999999999 2000.0 1040.0 559.9999999999999 2157.5
 1120.0 559.9999999999998 2000.0 1120.0 559.9999999999998 2157.5
 1200.0 560.0000000000003 2000.0 1200.0 560.0000000000003 2157.5
 1280.0 560.0000000000002 2000.0 1280.0 560.0000000000002 2157.5
 1360.0 560.0000000000002 2000.0 1360.0 560.0000000000002 2157.5
 1440.0 559.9999999999999 2000.0 1440.0 559.9999999999999 2157.5
 1520.0 560.0000000000005 2000.0 1520.0 560.0000000000005 2157.5
 1600.0 559.9999999999998 2000.0 1600.0 559.9999999999998 2157.5
 1680.0 559.9999999999995 2000.0 1680.0 559.9999999999995 2157.5
 1760.0 559.9999999999995 2000.0 1760.0 559.9999999999995 2157.5
 1840.0 560.0000000000002 2000.0 1840.0 560.0000000000002 2157.5
 1920.0 560.0000000000002 2000.0 1920.0 560.0000000000002 2157.5
 2000.0 559.9999999999995 2000.0 2000.0 559.9999999999995 2157.5
 2080.0 559.9999999999997 2000.0 2080.0 559.9999999999997 2157.5
 2160.0 560.0000000000003 2000.0 2160.0 560.0000000000003 2157.5
 2240.0 560.0000000000013 2000.0 2240.0 560.0000000000013 2157.5
 2320.0 560.0000000000007 2000.0 2320.0 560.0000000000007 2157.5
 2400.0 560.0000000000001 2000.0 2400.0 560.0000000000001 2157.5
 2480.0 559.9999999999998 2000.0 2480.0 559.9999999999998 2157.5
 2560.0 560.0000000000007 2000.0 2560.0 560.0000000000007 2157.5
 2640.0 559.999999999999 2000.0 2640.0 559.999999999999 2157.5
 2720.0 559.9999999999994 2000.0 2720.0 559.9999999999994 2157.5
 2800.0 559.9999999999991 2000.0 2800.0 559.9999999999991 2157.5
 2880.0 560.0000000000019 2000.0 2880.0 560.0000000000019 2157.5
 2960.0 559.9999999999998 2000.0 2960.0 559.9999999999998 2157.5
 3040.0 560.0000000000007 2000.0 3040.0 560.0000000000007 2157.5
 3120.0 559.9999999999992 2000.0 3120.0 559.9999999999992 2157.5
 3200.0 560.0 2000.0 3200.0 560.0 2157.5
 3280.0 559.9999999999992 2000.0 3280.0 559.9999999999992 2157.5
 3360.0 559.9999999999998 2000.0 3360.0 559.9999999999998 2157.5
 3440.0 559.9999999999987 2000.0 3440.0 559.9999999999987 2157.5
 3520.0 559.9999999999986 2000.0 3520.0 559.9999999999986 2157.5
 3600.0 559.9999999999999 2000.0 3600.0 559.9999999999999 2157.5
 3680.0 559.9999999999985 2000.0 3680.0 559.9999999999985 2157.5
 3760.0 560.0 2000.0 3760.0 560.0 2157.5
 3840.0 559.9999999999989 2000.0 3840.0 559.9999999999989 2157.5
 3920.0 560.0000000000018 2000.0 3920.0 560.0000000000018 2157.5
 4000.0 559.9999999999995 2000.0 4000.0 559.9999999999995 2157.5
 3.9188697572715304e-14 640.0 2000.0 3.9188697572715304e-14 640.0 2157.5
 80.00000000000006 640.0 2000.0 80.00000000000006 640.0 2157.5
 159.99999999999994 640.0 2000.0 159.99999999999994 640.0 2157.5
 240.0 640.0 2000.0 240.0 640.0 2157.5
 320.0000000000001 640.0 2000.0 320.0000000000001 640.0 2157.5
 399.9999999999999 640.0000000000001 2000.0 399.9999999999999 640.0000000000001 2157.5
 480.0 640.0 2000.0 480.0 640.0 2157.5
 560.0 640.0 2000.0 560.0 640.0 2157.5
 640.0 640.0000000000001 2000.0 640.0 640.0000000000001 2157.5
 720.0 639.9999999999999 2000.0 720.0 639.9999999999999 2157.5
 800.0 639.9999999999999 2000.0 800.0 639.9999999999999 2157.5
 880.0 640.0 2000.0 880.0 640.0 2157.5
 960.0 639.9999999999999 2000.0 960.0 639.9999999999999 2157.5
 1040.0 639.9999999999998 2000.0 1040.0 639.9999999999998 2157.5
 1120.0 639.9999999999997 2000.0 1120.0 639.9999999999997 2157.5
 1200.0 640.0000000000001 2000.0 1200.0 640.0000000000001 2157.5
 1280.0 640.0000000000001 2000.0 1280.0 640.0000000000001 2157.5
 1360.0 639.9999999999998 2000.0 1360.0 639.9999999999998 2157.5
 1440.0 639.9999999999999 2000.0 1440.0 639.9999999999999 2157.5
 1520.0 640.0000000000001 2000.0 1520.0 640.0000000000001 2157.5
 1600.0 640.0 2000.0 1600.0 640.0 2157.5
 1680.0 640.0000000000006 2000.0 1680.0 640.0000000000006 2157.5
 1760.0 640.0000000000005 2000.0 1760.0 640.0000000000005 2157.5
 1840.0 640.0000000000003 2000.0 1840.0 640.0000000000003 2157.5
 1920.0 640.0000000000002 2000.0 1920.0 640.0000000000002 2157.5
 2000.0 639.9999999999997 2000.0 2000.0 639.9999999999997 2157.5
 2080.0 639.9999999999999 2000.0 2080.0 639.9999999999999 2157.5
 2160.0 640.0 2000.0 2160.0 640.0 2157.5
 2240.0 640.0000000000001 2000.0 2240.0 640.0000000000001 2157.5
 2320.0 639.9999999999992 2000.0 2320.0 639.9999999999992 2157.5
 2400.0 640.0000000000001 2000.0 2400.0 640.0000000000001 2157.5
 2480.0 640.0000000000001 2000.0 2480.0 640.0000000000001 2157.5
 2560.0 640.0000000000002 2000.0 2560.0 640.0000000000002 2157.5
 2640.0 639.9999999999994 2000.0 2640.0 639.9999999999994 2157.5
 2720.0 640.0000000000003 2000.0 2720.0 640.0000000000003 2157.5
 2800.0 639.9999999999993 2000.0 2800.0 639.9999999999993 2157.5
 2880.0 640.0000000000006 2000.0 2880.0 640.0000000000006 2157.5
 2960.0 640.0000000000001 2000.0 2960.0 640.0000000000001 2157.5
 3040.0 640.0000000000011 2000.0 3040.0 640.0000000000011 2157.5
 3120.0 640.0000000000001 2000.0 3120.0 640.0000000000001 2157.5
 3200.0 640.0000000000008 2000.0 3200.0 640.0000000000008 2157.5
 3280.0 639.9999999999992 2000.0 3280.0 639.9999999999992 2157.5
 3360.0 639.9999999999998 2000.0 3360.0 639.9999999999998 2157.5
 3440.0 640.0000000000007 2000.0 3440.0 640.0000000000007 2157.5
 3520.0 640.0000000000007 2000.0 3520.0 640.0000000000007 2157.5
 3600.0 639.9999999999993 2000.0 3600.0 639.9999999999993 2157.5
 3680.0 639.9999999999998 2000.0 3680.0 639.9999999999998 2157.5
 3760.0 640.0000000000002 2000.0 3760.0 640.0000000000002 2157.5
 3840.0 639.9999999999997 2000.0 3840.0 639.9999999999997 2157.5
 3920.0 640.0000000000015 2000.0 3920.0 640.0000000000015 2157.5
 4000.0 639.9999999999992 2000.0 4000.0 639.9999999999992 2157.5
 4.4087284769304716e-14 720.0 2000.0 4.4087284769304716e-14 720.0 2157.5
 80.00000000000004 720.0 2000.0 80.00000000000004 720.0 2157.5
 160.00000000000003 720.0 2000.0 160.00000000000003 720.0 2157.5
 240.0 719.9999999999999 2000.0 240.0 719.9999999999999 2157.5
 319.99999999999994 720.0 2000.0 319.99999999999994 720.0 2157.5
 400.0 720.0000000000001 2000.0 400.0 720.0000000000001 2157.5
 480.0 720.0 2000.0 480.0 720.0 2157.5
 560.0 720.0 2000.0 560.0 720.0 2157.5
 640.0 719.9999999999999 2000.0 640.0 719.9999999999999 2157.5
 720.0 720.0000000000001 2000.0 720.0 720.0000000000001 2157.5
 800.0 720.0000000000001 2000.0 800.0 720.0000000000001 2157.5
 880.0 719.9999999999998 2000.0 880.0 719.9999999999998 2157.5
 960.0 719.9999999999999 2000.0 960.0 719.9999999999999 2157.5
 1040.0 720.0000000000002 2000.0 1040.0 720.0000000000002 2157.5
 1120.0 720.0000000000001 2000.0 1120.0 720.0000000000001 2157.5
 1200.0 720.0000000000002 2000.0 1200.0 720.0000000000002 2157.5
 1280.0 720.0000000000001 2000.0 1280.0 720.0000000000001 2157.5
 1360.0 720.0 2000.0 1360.0 720.0 2157.5
 1440.0 720.0000000000001 2000.0 1440.0 720.0000000000001 2157.5
 1520.0 720.0 2000.0 1520.0 720.0 2157.5
 1600.0 719.9999999999994 2000.0 1600.0 719.9999999999994 2157.5
 1680.0 720.0000000000005 2000.0 1680.0 720.0000000000005 2157.5
 1760.0 720.0 2000.0 1760.0 720.0 2157.5
 1840.0 719.9999999999999 2000.0 1840.0 719.9999999999999 2157.5
 1920.0 719.9999999999998 2000.0 1920.0 719.9999999999998 2157.5
 2000.0 719.9999999999999 2000.0 2000.0 719.9999999999999 2157.5
 2080.0 719.9999999999997 2000.0 2080.0 719.9999999999997 2157.5
 2160.0 720.0000000000002 2000.0 2160.0 720.0000000000002 2157.5
 2240.0 719.9999999999993 2000.0 2240.0 719.9999999999993 2157.5
 2320.0 719.9999999999991 2000.0 2320.0 719.9999999999991 2157.5
 2400.0 719.9999999999998 2000.0 2400.0 719.9999999999998 2157.5
 2480.0 719.9999999999998 2000.0 2480.0 719.9999999999998 2157.5